# vtk DataFile Version 3.0
vtk output
ASCII
DATASET UNSTRUCTURED_GRID
POINTS 524 double
1.000000e+00	0.000000e+00	0.0	4.482900e-01	6.514000e-02	0.0	0.000000e+00	0.000000e+00	0.0	3.569200e-01	-4.938000e-02	0.0	9.983158e-01	9.048326e-04	0.0	9.965534e-01	1.783452e-03	0.0	9.947158e-01	2.634692e-03	0.0	9.928105e-01	3.461932e-03	0.0	9.908398e-01	4.268844e-03	0.0	9.888100e-01	5.059811e-03	0.0	9.867234e-01	5.837129e-03	0.0	9.845792e-01	6.596712e-03	0.0	9.823823e-01	7.345616e-03	0.0	9.801354e-01	8.088302e-03	0.0	9.778348e-01	8.811929e-03	0.0	9.754846e-01	9.522598e-03	0.0	9.730916e-01	1.023753e-02	0.0	9.706524e-01	1.094221e-02	0.0	9.681618e-01	1.162876e-02	0.0	9.656283e-01	1.230560e-02	0.0	9.630490e-01	1.297586e-02	0.0	9.604270e-01	1.363561e-02	0.0	9.577597e-01	1.428568e-02	0.0	9.550510e-01	1.491955e-02	0.0	9.522951e-01	1.554237e-02	0.0	9.495022e-01	1.616403e-02	0.0	9.466688e-01	1.678165e-02	0.0	9.437924e-01	1.739172e-02	0.0	9.408775e-01	1.799343e-02	0.0	9.379234e-01	1.858363e-02	0.0	9.349270e-01	1.916718e-02	0.0	9.318923e-01	1.974973e-02	0.0	9.288203e-01	2.032823e-02	0.0	9.257104e-01	2.089966e-02	0.0	9.225630e-01	2.146607e-02	0.0	9.193786e-01	2.202987e-02	0.0	9.161542e-01	2.259133e-02	0.0	9.128931e-01	2.314946e-02	0.0	9.095956e-01	2.370574e-02	0.0	9.062627e-01	2.426564e-02	0.0	9.028944e-01	2.482824e-02	0.0	8.994907e-01	2.539314e-02	0.0	8.960517e-01	2.596033e-02	0.0	8.925770e-01	2.652735e-02	0.0	8.890669e-01	2.709378e-02	0.0	8.855222e-01	2.766534e-02	0.0	8.819433e-01	2.824328e-02	0.0	8.783299e-01	2.882416e-02	0.0	8.746818e-01	2.940631e-02	0.0	8.709998e-01	2.999280e-02	0.0	8.672842e-01	3.058540e-02	0.0	8.635350e-01	3.118314e-02	0.0	8.597486e-01	3.178667e-02	0.0	8.559282e-01	3.239491e-02	0.0	8.520741e-01	3.300573e-02	0.0	8.481864e-01	3.361998e-02	0.0	8.442663e-01	3.424284e-02	0.0	8.403141e-01	3.487451e-02	0.0	8.363285e-01	3.550534e-02	0.0	8.323070e-01	3.613342e-02	0.0	8.282474e-01	3.676515e-02	0.0	8.241554e-01	3.740161e-02	0.0	8.200311e-01	3.804176e-02	0.0	8.158751e-01	3.868706e-02	0.0	8.116872e-01	3.933432e-02	0.0	8.074582e-01	3.997864e-02	0.0	8.031943e-01	4.062063e-02	0.0	7.988982e-01	4.126021e-02	0.0	7.945701e-01	4.189724e-02	0.0	7.902090e-01	4.253479e-02	0.0	7.858056e-01	4.317540e-02	0.0	7.813704e-01	4.381266e-02	0.0	7.769034e-01	4.444480e-02	0.0	7.724052e-01	4.507292e-02	0.0	7.678619e-01	4.569974e-02	0.0	7.632864e-01	4.632198e-02	0.0	7.586796e-01	4.693703e-02	0.0	7.540408e-01	4.754584e-02	0.0	7.493557e-01	4.815185e-02	0.0	7.446400e-01	4.875256e-02	0.0	7.398932e-01	4.934209e-02	0.0	7.351077e-01	4.992093e-02	0.0	7.302811e-01	5.049290e-02	0.0	7.254243e-01	5.105716e-02	0.0	7.205377e-01	5.161347e-02	0.0	7.156021e-01	5.216529e-02	0.0	7.106354e-01	5.270657e-02	0.0	7.056387e-01	5.323317e-02	0.0	7.005988e-01	5.374931e-02	0.0	6.955211e-01	5.425674e-02	0.0	6.904141e-01	5.475376e-02	0.0	6.852691e-01	5.524148e-02	0.0	6.800807e-01	5.571977e-02	0.0	6.748631e-01	5.618454e-02	0.0	6.696106e-01	5.663675e-02	0.0	6.643108e-01	5.708058e-02	0.0	6.589825e-01	5.751422e-02	0.0	6.536209e-01	5.793192e-02	0.0	6.482090e-01	5.833418e-02	0.0	6.427690e-01	5.872572e-02	0.0	6.372964e-01	5.910776e-02	0.0	6.317730e-01	5.947774e-02	0.0	6.262215e-01	5.983258e-02	0.0	6.206359e-01	6.017866e-02	0.0	6.150007e-01	6.051909e-02	0.0	6.093377e-01	6.084608e-02	0.0	6.036375e-01	6.115801e-02	0.0	5.978893e-01	6.145897e-02	0.0	5.921136e-01	6.174853e-02	0.0	5.862968e-01	6.202676e-02	0.0	5.804353e-01	6.229360e-02	0.0	5.745464e-01	6.254833e-02	0.0	5.686109e-01	6.279167e-02	0.0	5.626351e-01	6.302311e-02	0.0	5.566319e-01	6.324223e-02	0.0	5.505754e-01	6.344588e-02	0.0	5.444840e-01	6.363229e-02	0.0	5.383655e-01	6.381922e-02	0.0	5.321866e-01	6.400656e-02	0.0	5.259789e-01	6.417127e-02	0.0	5.197371e-01	6.431676e-02	0.0	5.134390e-01	6.445380e-02	0.0	5.071129e-01	6.457992e-02	0.0	5.007449e-01	6.469555e-02	0.0	4.943271e-01	6.479850e-02	0.0	4.878807e-01	6.488468e-02	0.0	4.813841e-01	6.496118e-02	0.0	4.748445e-01	6.503139e-02	0.0	4.682757e-01	6.508242e-02	0.0	4.616481e-01	6.511381e-02	0.0	4.549839e-01	6.513130e-02	0.0	4.431181e-01	6.513885e-02	0.0	4.379514e-01	6.513366e-02	0.0	4.328308e-01	6.511214e-02	0.0	4.277208e-01	6.507877e-02	0.0	4.226509e-01	6.504125e-02	0.0	4.175971e-01	6.499935e-02	0.0	4.125776e-01	6.494834e-02	0.0	4.075799e-01	6.488713e-02	0.0	4.026103e-01	6.481670e-02	0.0	3.976685e-01	6.473671e-02	0.0	3.927484e-01	6.464794e-02	0.0	3.878622e-01	6.455265e-02	0.0	3.829911e-01	6.445020e-02	0.0	3.781604e-01	6.434114e-02	0.0	3.733378e-01	6.422580e-02	0.0	3.685623e-01	6.410186e-02	0.0	3.637946e-01	6.396451e-02	0.0	3.590680e-01	6.381811e-02	0.0	3.543557e-01	6.366785e-02	0.0	3.496762e-01	6.351365e-02	0.0	3.450191e-01	6.335281e-02	0.0	3.403865e-01	6.318551e-02	0.0	3.357846e-01	6.301101e-02	0.0	3.311985e-01	6.282691e-02	0.0	3.266518e-01	6.263509e-02	0.0	3.221149e-01	6.243628e-02	0.0	3.176202e-01	6.223230e-02	0.0	3.131387e-01	6.202013e-02	0.0	3.086895e-01	6.179840e-02	0.0	3.042635e-01	6.156947e-02	0.0	2.998589e-01	6.133887e-02	0.0	2.954877e-01	6.110689e-02	0.0	2.911280e-01	6.086814e-02	0.0	2.868112e-01	6.062357e-02	0.0	2.825072e-01	6.037133e-02	0.0	2.782342e-01	6.011036e-02	0.0	2.739861e-01	5.984082e-02	0.0	2.697564e-01	5.956620e-02	0.0	2.655635e-01	5.928902e-02	0.0	2.613840e-01	5.900563e-02	0.0	2.572391e-01	5.871505e-02	0.0	2.531156e-01	5.841750e-02	0.0	2.490125e-01	5.811869e-02	0.0	2.449438e-01	5.782210e-02	0.0	2.408899e-01	5.751966e-02	0.0	2.368693e-01	5.720619e-02	0.0	2.328720e-01	5.688445e-02	0.0	2.288922e-01	5.656156e-02	0.0	2.249500e-01	5.624066e-02	0.0	2.210240e-01	5.591438e-02	0.0	2.171240e-01	5.557964e-02	0.0	2.132546e-01	5.523892e-02	0.0	2.094023e-01	5.489284e-02	0.0	2.055812e-01	5.454227e-02	0.0	2.017852e-01	5.418778e-02	0.0	1.980071e-01	5.382994e-02	0.0	1.942629e-01	5.346919e-02	0.0	1.905414e-01	5.310264e-02	0.0	1.868390e-01	5.273009e-02	0.0	1.831709e-01	5.235321e-02	0.0	1.795256e-01	5.196944e-02	0.0	1.759002e-01	5.158084e-02	0.0	1.723061e-01	5.119456e-02	0.0	1.687363e-01	5.080990e-02	0.0	1.651876e-01	5.041697e-02	0.0	1.616673e-01	5.001117e-02	0.0	1.581769e-01	4.959917e-02	0.0	1.547074e-01	4.918721e-02	0.0	1.512595e-01	4.877366e-02	0.0	1.478460e-01	4.835331e-02	0.0	1.444567e-01	4.792151e-02	0.0	1.410903e-01	4.748489e-02	0.0	1.377468e-01	4.705079e-02	0.0	1.344363e-01	4.661689e-02	0.0	1.311498e-01	4.617342e-02	0.0	1.278881e-01	4.571911e-02	0.0	1.246508e-01	4.526008e-02	0.0	1.214435e-01	4.480121e-02	0.0	1.182632e-01	4.433852e-02	0.0	1.151083e-01	4.386754e-02	0.0	1.119792e-01	4.338895e-02	0.0	1.088760e-01	4.290457e-02	0.0	1.058013e-01	4.241439e-02	0.0	1.027563e-01	4.192011e-02	0.0	9.973706e-02	4.142399e-02	0.0	9.674444e-02	4.092298e-02	0.0	9.378006e-02	4.040961e-02	0.0	9.084415e-02	3.988464e-02	0.0	8.793502e-02	3.935947e-02	0.0	8.505218e-02	3.883841e-02	0.0	8.219830e-02	3.830827e-02	0.0	7.937584e-02	3.775942e-02	0.0	7.658391e-02	3.720138e-02	0.0	7.381932e-02	3.664447e-02	0.0	7.108324e-02	3.608384e-02	0.0	6.837783e-02	3.551040e-02	0.0	6.570330e-02	3.492485e-02	0.0	6.305842e-02	3.433414e-02	0.0	6.044445e-02	3.373951e-02	0.0	5.786255e-02	3.313348e-02	0.0	5.531343e-02	3.251348e-02	0.0	5.279653e-02	3.188284e-02	0.0	5.031175e-02	3.124288e-02	0.0	4.786011e-02	3.059050e-02	0.0	4.544261e-02	2.992290e-02	0.0	4.306069e-02	2.924405e-02	0.0	4.071386e-02	2.855790e-02	0.0	3.840258e-02	2.785548e-02	0.0	3.612967e-02	2.712879e-02	0.0	3.389808e-02	2.638873e-02	0.0	3.170119e-02	2.563962e-02	0.0	2.954559e-02	2.486972e-02	0.0	2.743546e-02	2.407491e-02	0.0	2.536914e-02	2.325545e-02	0.0	2.335068e-02	2.241133e-02	0.0	2.137915e-02	2.154459e-02	0.0	1.945669e-02	2.065159e-02	0.0	1.759002e-02	1.972961e-02	0.0	1.578124e-02	1.877373e-02	0.0	1.403562e-02	1.777948e-02	0.0	1.234770e-02	1.676201e-02	0.0	1.072822e-02	1.570908e-02	0.0	9.196401e-03	1.459886e-02	0.0	7.744397e-03	1.345021e-02	0.0	6.380932e-03	1.226231e-02	0.0	5.116763e-03	1.102983e-02	0.0	3.965950e-03	9.750241e-03	0.0	2.939919e-03	8.424611e-03	0.0	2.051204e-03	7.058219e-03	0.0	1.311725e-03	5.659145e-03	0.0	7.280801e-04	4.240362e-03	0.0	3.214629e-04	2.811049e-03	0.0	8.920335e-05	1.390731e-03	0.0	7.936181e-05	-1.092825e-03	0.0	2.805592e-04	-2.207958e-03	0.0	6.396653e-04	-3.326228e-03	0.0	1.145483e-03	-4.430273e-03	0.0	1.782974e-03	-5.510491e-03	0.0	2.551186e-03	-6.551633e-03	0.0	3.435475e-03	-7.548748e-03	0.0	4.408404e-03	-8.513795e-03	0.0	5.469705e-03	-9.435389e-03	0.0	6.612355e-03	-1.031442e-02	0.0	7.824589e-03	-1.115494e-02	0.0	9.097635e-03	-1.196404e-02	0.0	1.042560e-02	-1.274633e-02	0.0	1.181134e-02	-1.348930e-02	0.0	1.324835e-02	-1.419920e-02	0.0	1.472780e-02	-1.489208e-02	0.0	1.624936e-02	-1.556273e-02	0.0	1.781315e-02	-1.620561e-02	0.0	1.941552e-02	-1.682725e-02	0.0	2.105509e-02	-1.743206e-02	0.0	2.272757e-02	-1.801946e-02	0.0	2.443594e-02	-1.859277e-02	0.0	2.617450e-02	-1.915069e-02	0.0	2.794611e-02	-1.969472e-02	0.0	2.974810e-02	-2.022484e-02	0.0	3.157895e-02	-2.073991e-02	0.0	3.344110e-02	-2.124314e-02	0.0	3.532986e-02	-2.174029e-02	0.0	3.724440e-02	-2.223098e-02	0.0	3.918595e-02	-2.270977e-02	0.0	4.115595e-02	-2.317543e-02	0.0	4.315259e-02	-2.363462e-02	0.0	4.517291e-02	-2.409255e-02	0.0	4.721778e-02	-2.454463e-02	0.0	4.928865e-02	-2.498351e-02	0.0	5.138502e-02	-2.541034e-02	0.0	5.350471e-02	-2.583499e-02	0.0	5.564674e-02	-2.626152e-02	0.0	5.781203e-02	-2.668447e-02	0.0	6.000126e-02	-2.709929e-02	0.0	6.221385e-02	-2.750757e-02	0.0	6.444934e-02	-2.791061e-02	0.0	6.670754e-02	-2.830850e-02	0.0	6.898818e-02	-2.870161e-02	0.0	7.129091e-02	-2.909045e-02	0.0	7.361545e-02	-2.947479e-02	0.0	7.596114e-02	-2.985694e-02	0.0	7.832811e-02	-3.023943e-02	0.0	8.071890e-02	-3.062001e-02	0.0	8.313138e-02	-3.099328e-02	0.0	8.556542e-02	-3.135789e-02	0.0	8.801983e-02	-3.171961e-02	0.0	9.049346e-02	-3.208408e-02	0.0	9.298680e-02	-3.244954e-02	0.0	9.550566e-02	-3.281080e-02	0.0	9.804487e-02	-3.316394e-02	0.0	1.006037e-01	-3.351191e-02	0.0	1.031812e-01	-3.385780e-02	0.0	1.057808e-01	-3.420262e-02	0.0	1.084034e-01	-3.454485e-02	0.0	1.110447e-01	-3.488227e-02	0.0	1.137042e-01	-3.521477e-02	0.0	1.163856e-01	-3.554569e-02	0.0	1.190894e-01	-3.587785e-02	0.0	1.21810
[...]
POINT_DATA 524

SCALARS Density double 1
LOOKUP_TABLE default
3.087379e-01	2.097565e-01	5.634882e-01	2.724944e-01	2.997028e-01	3.003527e-01	2.995989e-01	2.994686e-01	2.991315e-01	2.986646e-01	2.980683e-01	2.973552e-01	2.966431e-01	2.958774e-01	2.951035e-01	2.944381e-01	2.938105e-01	2.931363e-01	2.925974e-01	2.921578e-01	2.917467e-01	2.913949e-01	2.911037e-01	2.908604e-01	2.907084e-01	2.905790e-01	2.904193e-01	2.902977e-01	2.901962e-01	2.901156e-01	2.900508e-01	2.899966e-01	2.898967e-01	2.898208e-01	2.897486e-01	2.896692e-01	2.895809e-01	2.894957e-01	2.894091e-01	2.893268e-01	2.892187e-01	2.891126e-01	2.890024e-01	2.888781e-01	2.887727e-01	2.886651e-01	2.885329e-01	2.883979e-01	2.882685e-01	2.881446e-01	2.880009e-01	2.878541e-01	2.877147e-01	2.875248e-01	2.873483e-01	2.871428e-01	2.869158e-01	2.866519e-01	2.863781e-01	2.860790e-01	2.858063e-01	2.853696e-01	2.849506e-01	2.844338e-01	2.838325e-01	2.832790e-01	2.826350e-01	2.822483e-01	2.820349e-01	2.821464e-01	2.824700e-01	2.829701e-01	2.834997e-01	2.841353e-01	2.847130e-01	2.852365e-01	2.854750e-01	2.854031e-01	2.847789e-01	2.838083e-01	2.824602e-01	2.813111e-01	2.800638e-01	2.790253e-01	2.779602e-01	2.767176e-01	2.750831e-01	2.729052e-01	2.699126e-01	2.655026e-01	2.584049e-01	2.462045e-01	2.258642e-01	2.017934e-01	1.852839e-01	1.787674e-01	1.779722e-01	1.792655e-01	1.807503e-01	1.819136e-01	1.829719e-01	1.841300e-01	1.852117e-01	1.860627e-01	1.869348e-01	1.880336e-01	1.891803e-01	1.902352e-01	1.912400e-01	1.922321e-01	1.932058e-01	1.941529e-01	1.950914e-01	1.960519e-01	1.971582e-01	1.984070e-01	1.991841e-01	1.993514e-01	1.999617e-01	2.012417e-01	2.023868e-01	2.032053e-01	2.039245e-01	2.046694e-01	2.055689e-01	2.064437e-01	2.070261e-01	2.076653e-01	2.085073e-01	2.098246e-01	2.127899e-01	2.099471e-01	2.143821e-01	2.129051e-01	2.146278e-01	2.145898e-01	2.152912e-01	2.158616e-01	2.167337e-01	2.175520e-01	2.184370e-01	2.191910e-01	2.198559e-01	2.204495e-01	2.209715e-01	2.215567e-01	2.224638e-01	2.235125e-01	2.242574e-01	2.246472e-01	2.249903e-01	2.254403e-01	2.260163e-01	2.267783e-01	2.276552e-01	2.284657e-01	2.291410e-01	2.298276e-01	2.307012e-01	2.316286e-01	2.322190e-01	2.324309e-01	2.326518e-01	2.330888e-01	2.336937e-01	2.345089e-01	2.354931e-01	2.363389e-01	2.368622e-01	2.372689e-01	2.378618e-01	2.386235e-01	2.391286e-01	2.391054e-01	2.390319e-01	2.395891e-01	2.406140e-01	2.413371e-01	2.414509e-01	2.414398e-01	2.418505e-01	2.425715e-01	2.432552e-01	2.438245e-01	2.442915e-01	2.446082e-01	2.448617e-01	2.452360e-01	2.457598e-01	2.463581e-01	2.470732e-01	2.477742e-01	2.479778e-01	2.475879e-01	2.474827e-01	2.483943e-01	2.496886e-01	2.503263e-01	2.502808e-01	2.504313e-01	2.513544e-01	2.524489e-01	2.527314e-01	2.523563e-01	2.524080e-01	2.533222e-01	2.543555e-01	2.547518e-01	2.547651e-01	2.551325e-01	2.559409e-01	2.567388e-01	2.574170e-01	2.579135e-01	2.579680e-01	2.578613e-01	2.585098e-01	2.599760e-01	2.608538e-01	2.602791e-01	2.597539e-01	2.610152e-01	2.631066e-01	2.639302e-01	2.635876e-01	2.637919e-01	2.650617e-01	2.662276e-01	2.665609e-01	2.670899e-01	2.686299e-01	2.704494e-01	2.718763e-01	2.731622e-01	2.749057e-01	2.766945e-01	2.776117e-01	2.787008e-01	2.813897e-01	2.846378e-01	2.864704e-01	2.877329e-01	2.903215e-01	2.942395e-01	2.988371e-01	3.038186e-01	3.090368e-01	3.147203e-01	3.216590e-01	3.306058e-01	3.387489e-01	3.456730e-01	3.564085e-01	3.703496e-01	3.841941e-01	3.990488e-01	4.158387e-01	4.348003e-01	4.555963e-01	4.773647e-01	4.991800e-01	5.200780e-01	5.386128e-01	5.538914e-01	5.622906e-01	5.608028e-01	5.529267e-01	5.419324e-01	5.283254e-01	5.133671e-01	4.995645e-01	4.862047e-01	4.728725e-01	4.616740e-01	4.519139e-01	4.430642e-01	4.342029e-01	4.263794e-01	4.212020e-01	4.161775e-01	4.102400e-01	4.055758e-01	4.021588e-01	3.988661e-01	3.956607e-01	3.925769e-01	3.896914e-01	3.871496e-01	3.848165e-01	3.830275e-01	3.817489e-01	3.802518e-01	3.781267e-01	3.760137e-01	3.748777e-01	3.742048e-01	3.727918e-01	3.706565e-01	3.690606e-01	3.687687e-01	3.687234e-01	3.675385e-01	3.655766e-01	3.639949e-01	3.629755e-01	3.621148e-01	3.612593e-01	3.604332e-01	3.596493e-01	3.589557e-01	3.582180e-01	3.570944e-01	3.555622e-01	3.542628e-01	3.537204e-01	3.535701e-01	3.528650e-01	3.513111e-01	3.496226e-01	3.485360e-01	3.479925e-01	3.474147e-01	3.464981e-01	3.454188e-01	3.445015e-01	3.438570e-01	3.432759e-01	3.423225e-01	3.408913e-01	3.394015e-01	3.382267e-01	3.373208e-01	3.364945e-01	3.357943e-01	3.352238e-01	3.346446e-01	3.340018e-01	3.333391e-01	3.325678e-01	3.315902e-01	3.304760e-01	3.293450e-01	3.281358e-01	3.269130e-01	3.259804e-01	3.253966e-01	3.248654e-01	3.241269e-01	3.231901e-01	3.222415e-01	3.214199e-01	3.206871e-01	3.198693e-01	3.188093e-01	3.175663e-01	3.164384e-01	3.155906e-01	3.149008e-01	3.141586e-01	3.133001e-01	3.123714e-01	3.113734e-01	3.102751e-01	3.091177e-01	3.080062e-01	3.069431e-01	3.059606e-01	3.052578e-01	3.048801e-01	3.044823e-01	3.036065e-01	3.022278e-01	3.007659e-01	2.995707e-01	2.986061e-01	2.976388e-01	2.965076e-01	2.952216e-01	2.939157e-01	2.926382e-01	2.914310e-01	2.905002e-01	2.900159e-01	2.897440e-01	2.891447e-01	2.880268e-01	2.866793e-01	2.855007e-01	2.844966e-01	2.835709e-01	2.824371e-01	2.813639e-01	2.799880e-01	2.793860e-01	2.774816e-01	2.788101e-01	2.741260e-01	2.742972e-01	2.706058e-01	2.687652e-01	2.670297e-01	2.647135e-01	2.625859e-01	2.608894e-01	2.594032e-01	2.577692e-01	2.559426e-01	2.538844e-01	2.516669e-01	2.497656e-01	2.482542e-01	2.466354e-01	2.448223e-01	2.432502e-01	2.416937e-01	2.399990e-01	2.382229e-01	2.364740e-01	2.348076e-01	2.333232e-01	2.318748e-01	2.303019e-01	2.285271e-01	2.267781e-01	2.251072e-01	2.235291e-01	2.221095e-01	2.209628e-01	2.197075e-01	2.180611e-01	2.164697e-01	2.158289e-01	2.181532e-01	2.275002e-01	2.471588e-01	2.720146e-01	2.920635e-01	3.051259e-01	3.136505e-01	3.194128e-01	3.241869e-01	3.287171e-01	3.327649e-01	3.363233e-01	3.396251e-01	3.426579e-01	3.453892e-01	3.479768e-01	3.504931e-01	3.528646e-01	3.550907e-01	3.572413e-01	3.593416e-01	3.613419e-01	3.632282e-01	3.650972e-01	3.669701e-01	3.687441e-01	3.704219e-01	3.720818e-01	3.737133e-01	3.753048e-01	3.768704e-01	3.783788e-01	3.798242e-01	3.812373e-01	3.826127e-01	3.839459e-01	3.852203e-01	3.864840e-01	3.876775e-01	3.888747e-01	3.900275e-01	3.911564e-01	3.921757e-01	3.932154e-01	3.942535e-01	3.952327e-01	3.961519e-01	3.970333e-01	3.979028e-01	3.987158e-01	3.995718e-01	4.003461e-01	4.010547e-01	4.017479e-01	4.024624e-01	4.031003e-01	4.036966e-01	4.042795e-01	4.048625e-01	4.053701e-01	4.058381e-01	4.062681e-01	4.066658e-01	4.070424e-01	4.074115e-01	4.076987e-01	4.079199e-01	4.081116e-01	4.082589e-01	4.083320e-01	4.083837e-01	4.083388e-01	4.082376e-01	4.080299e-01	4.077927e-01	4.074084e-01	4.069432e-01	4.063417e-01	4.056200e-01	4.047819e-01	4.037490e-01	4.024734e-01	4.011255e-01	3.994066e-01	3.973197e-01	3.950733e-01	3.921771e-01	3.883693e-01	3.837835e-01	3.778327e-01	3.683323e-01	3.532528e-01	
VECTORS Momentum double
0.000000e+00	0.000000e+00	0.0	0.000000e+00	0.000000e+00	0.0	0.000000e+00	0.000000e+00	0.0	0.000000e+00	0.000000e+00	0.0	0.000000e+00	0.000000e+00	0.0	0.000000e+00	0.000000e+00	0.0	0.000000e+00	0.000000e+00	0.0	0.000000e+00	0.000000e+00	0.0	0.000000e+00	0.000000e+00	0.0	0.000000e+00	0.000000e+00	0.0	0.000000e+00	0.000000e+00	0.0	0.000000e+00	0.000000e+00	0.0	0.000000e+00	0.000000e+00	0.0	0.000000e+00	0.000000e+00	0.0	0.000000e+00	0.000000e+00	0.0	0.000000e+00	0.000000e+00	0.0	0.000000e+00	0.000000e+00	0.0	0.000000e+00	0.000000e+00	0.0	0.000000e+00	0.000000e+00	0.0	0.000000e+00	0.000000e+00	0.0	0.000000e+00	0.000000e+00	0.0	0.000000e+00	0.000000e+00	0.0	0.000000e+00	0.000000e+00	0.0	0.000000e+00	0.000000e+00	0.0	0.000000e+00	0.000000e+00	0.0	0.000000e+00	0.000000e+00	0.0	0.000000e+00	0.000000e+00	0.0	0.000000e+00	0.000000e+00	0.0	0.000000e+00	0.000000e+00	0.0	0.000000e+00	0.000000e+00	0.0	0.000000e+00	0.000000e+00	0.0	0.000000e+00	0.000000e+00	0.0	0.000000e+00	0.000000e+00	0.0	0.000000e+00	0.000000e+00	0.0	0.000000e+00	0.000000e+00	0.0	0.000000e+00	0.000000e+00	0.0	0.000000e+00	0.000000e+00	0.0	0.000000e+00	0.000000e+00	0.0	0.000000e+00	0.000000e+00	0.0	0.000000e+00	0.000000e+00	0.0	0.000000e+00	0.000000e+00	0.0	0.000000e+00	0.000000e+00	0.0	0.000000e+00	0.000000e+00	0.0	0.000000e+00	0.000000e+00	0.0	0.000000e+00	0.000000e+00	0.0	0.000000e+00	0.000000e+00	0.0	0.000000e+00	0.000000e+00	0.0	0.000000e+00	0.000000e+00	0.0	0.000000e+00	0.000000e+00	0.0	0.000000e+00	0.000000e+00	0.0	0.000000e+00	0.000000e+00	0.0	0.000000e+00	0.000000e+00	0.0	0.000000e+00	0.000000e+00	0.0	0.000000e+00	0.000000e+00	0.0	0.000000e+00	0.000000e+00	0.0	0.000000e+00	0.000000e+00	0.0	0.000000e+00	0.000000e+00	0.0	0.000000e+00	0.000000e+00	0.0	0.000000e+00	0.000000e+00	0.0	0.000000e+00	0.000000e+00	0.0	0.000000e+00	0.000000e+00	0.0	0.000000e+00	0.000000e+00	0.0	0.000000e+00	0.000000e+00	0.0	0.000000e+00	0.000000e+00	0.0	0.000000e+00	0.000000e+00	0.0	0.000000e+00	0.000000e+00	0.0	0.000000e+00	0.000000e+00	0.0	0.000000e+00	0.000000e+00	0.0	0.000000e+00	0.000000e+00	0.0	0.000000e+00	0.000000e+00	0.0	0.000000e+00	0.000000e+00	0.0	0.000000e+00	0.000000e+00	0.0	0.000000e+00	0.000000e+00	0.0	0.000000e+00	0.000000e+00	0.0	0.000000e+00	0.000000e+00	0.0	0.000000e+00	0.000000e+00	0.0	0.000000e+00	0.000000e+00	0.0	0.000000e+00	0.000000e+00	0.0	0.000000e+00	0.000000e+00	0.0	0.000000e+00	0.000000e+00	0.0	0.000000e+00	0.000000e+00	0.0	0.000000e+00	0.000000e+00	0.0	0.000000e+00	0.000000e+00	0.0	0.000000e+00	0.000000e+00	0.0	0.000000e+00	0.000000e+00	0.0	0.000000e+00	0.000000e+00	0.0	0.000000e+00	0.000000e+00	0.0	0.000000e+00	0.000000e+00	0.0	0.000000e+00	0.000000e+00	0.0	0.000000e+00	0.000000e+00	0.0	0.000000e+00	0.000000e+00	0.0	0.000000e+00	0.000000e+00	0.0	0.000000e+00	0.000000e+00	0.0	0.000000e+00	0.000000e+00	0.0	0.000000e+00	0.000000e+00	0.0	0.000000e+00	0.000000e+00	0.0	0.000000e+00	0.000000e+00	0.0	0.000000e+00	0.000000e+00	0.0	0.000000e+00	0.000000e+00	0.0	0.000000e+00	0.000000e+00	0.0	0.000000e+00	0.000000e+00	0.0	0.000000e+00	0.000000e+00	0.0	0.000000e+00	0.000000e+00	0.0	0.000000e+00	0.000000e+00	0.0	0.000000e+00	0.000000e+00	0.0	0.000000e+00	0.000000e+00	0.0	0.000000e+00	0.000000e+00	0.0	0.000000e+00	0.000000e+00	0.0	0.000000e+00	0.000000e+00	0.0	0.000000e+00	0.000000e+00	0.0	0.000000e+00	0.000000e+00	0.0	0.000000e+00	0.000000e+00	0.0	0.000000e+00	0.000000e+00	0.0	0.000000e+00	0.000000e+00	0.0	0.000000e+00	0.000000e+00	0.0	0.000000e+00	0.000000e+00	0.0	0.000000e+00	0.000000e+00	0.0	0.000000e+00	0.000000e+00	0.0	0.000000e+00	0.000000e+00	0.0	0.000000e+00	0.000000e+00	0.0	0.000000e+00	0.000000e+00	0.0	0.000000e+00	0.000000e+00	0.0	0.000000e+00	0.000000e+00	0.0	0.000000e+00	0.000000e+00	0.0	0.000000e+00	0.000000e+00	0.0	0.000000e+00	0.000000e+00	0.0	0.000000e+00	0.000000e+00	0.0	0.000000e+00	0.000000e+00	0.0	0.000000e+00	0.000000e+00	0.0	0.000000e+00	0.000000e+00	0.0	0.000000e+00	0.000000e+00	0.0	0.000000e+00	0.000000e+00	0.0	0.000000e+00	0.000000e+00	0.0	0.000000e+00	0.000000e+00	0.0	0.000000e+00	0.000000e+00	0.0	0.000000e+00	0.000000e+00	0.0	0.000000e+00	0.000000e+00	0.0	0.000000e+00	0.000000e+00	0.0	0.000000e+00	0.000000e+00	0.0	0.000000e+00	0.000000e+00	0.0	0.000000e+00	0.000000e+00	0.0	0.000000e+00	0.000000e+00	0.0	0.000000e+00	0.000000e+00	0.0	0.000000e+00	0.000000e+00	0.0	0.000000e+00	0.000000e+00	0.0	0.000000e+00	0.000000e+00	0.0	0.000000e+00	0.000000e+00	0.0	0.000000e+00	0.000000e+00	0.0	0.000000e+00	0.000000e+00	0.0	0.000000e+00	0.000000e+00	0.0	0.000000e+00	0.000000e+00	0.0	0.000000e+00	0.000000e+00	0.0	0.000000e+00	0.000000e+00	0.0	0.000000e+00	0.000000e+00	0.0	0.000000e+00	0.000000e+00	0.0	0.000000e+00	0.000000e+00	0.0	0.000000e+00	0.000000e+00	0.0	0.000000e+00	0.000000e+00	0.0	0.000000e+00	0.000000e+00	0.0	0.000000e+00	0.000000e+00	0.0	0.000000e+00	0.000000e+00	0.0	0.000000e+00	0.000000e+00	0.0	0.000000e+00	0.000000e+00	0.0	0.000000e+00	0.000000e+00	0.0	0.000000e+00	0.000000e+00	0.0	0.000000e+00	0.000000e+00	0.0	0.000000e+00	0.000000e+00	0.0	0.000000e+00	0.000000e+00	0.0	0.000000e+00	0.000000e+00	0.0	0.000000e+00	0.000000e+00	0.0	0.000000e+00	0.000000e+00	0.0	0.000000e+00	0.000000e+00	0.0	0.000000e+00	0.000000e+00	0.0	0.000000e+00	0.000000e+00	0.0	0.000000e+00	0.000000e+00	0.0	0.000000e+00	0.000000e+00	0.0	0.000000e+00	0.000000e+00	0.0	0.000000e+00	0.000000e+00	0.0	0.000000e+00	0.000000e+00	0.0	0.000000e+00	0.000000e+00	0.0	0.000000e+00	0.000000e+00	0.0	0.000000e+00	0.000000e+00	0.0	0.000000e+00	0.000000e+00	0.0	0.000000e+00	0.000000e+00	0.0	0.000000e+00	0.000000e+00	0.0	0.000000e+00	0.000000e+00	0.0	0.000000e+00	0.000000e+00	0.0	0.000000e+00	0.000000e+00	0.0	0.000000e+00	0.000000e+00	0.0	0.000000e+00	0.000000e+00	0.0	0.000000e+00	0.000000e+00	0.0	0.000000e+00	0.000000e+00	0.0	0.000000e+00	0.000000e+00	0.0	0.000000e+00	0.000000e+00	0.0	0.000000e+00	0.000000e+00	0.0	0.000000e+00	0.000000e+00	0.0	0.000000e+00	0.000000e+00	0.0	0.000000e+00	0.000000e+00	0.0	0.000000e+00	0.000000e+00	0.0	0.000000e+00	0.000000e+00	0.0	0.000000e+00	0.000000e+00	0.0	0.000000e+00	0.000000e+00	0.0	0.000000e+00	0.000000e+00	0.0	0.000000e+00	0.000000e+00	0.0	0.000000e+00	0.000000e+00	0.0	0.000000e+00	0.000000e+00	0.0	0.000000e+00	0.000000e+00	0.0	0.000000e+00	0.000000e+00	0.0	0.000000e+00	0.000000e+00	0.0	0.000000e+00	0.000000e+00	0.0	0.000000e+00	0.000000e+00	0.0	0.000000e+00	0.000000e+00	0.0	0.000000e+00	0.000000e+00	0.0	0.000000e+00	0.000000e+00	0.0	0.000000e+00	0.000000e+00	0.0	0.000000e+00	0.000000e+00	0.0	0.000000e+00	0.000000e+00	0.0	0.000000e+00	0.000000e+00	0.0	0.000000e+00	0.000000e+00	0.0	0.000000e+00	0.000000e+00	0.0	0.000000e+00	0.000000e+00	0.0	0.000000e+00	0.000000e+00	0.0	0.000000e+00	0.000000e+00	0.0	0.000000e+00	0.000000e+00	0.0	0.000000e+00	0.000000e+00	0.0	0.000000e+00	0.000000e+00	0.0	0.000000e+00	0.000000e+00	0.0	0.000000e+00	0.000000e+00	0.0	0.000000e+00	0.000000e+00	0.0	0.000000e+00	0.000000e+00	0.0	0.000000e+00	0.000000e+00	0.0	0.000000e+00	0.000000e+00	0.0	0.000000e+00	0.000000e+00	0.0	0.000000e+00	0.000000e+00	0.0	0.000000e+00	0.000000e+00	0.0	0.000000e+00	0.000000e+00	0.0	0.000000e+00	0.000000e+00	0.0	0.000000e+00	0.000000e+00	0.0	0.000000e+00	0.000000e+00	0.0	0.000000e+00	0.000000e+00	0.0	0.000000e+00	0.000000e+00	0.0	0.000000e+00	0.000000e+00	0.0	0.000000e+00	0.000000e+00	0.0	0.000000e+00	0.000000e+00	0.0	0.000000e+00	0.000000e+00	0.0	0.000000e+00	0.000000e+00	0.0	0.000000e+00	0.000000e+00	0.0	0.000000e+00	0.000000e+00	0.0	0.000000e+00	0.000000e+00	0.0	0.000000e+00	0.000000e+00	0.0	0.000000e+00	0.000000e+00	0.0	0.000000e+00	0.000000e+00	0.0	0.000000e+00	0.000000e+00	0.0	0.000000e+00	0.000000e+00	0.0	0.000000e+00	0.000000e+00	0.0	0.000000e+00	0.000000e+00	0.0	0.000000e+00	0.000000e+00	0.0	0.000000e+00	0.000000e+00	0.0	0.000000e+00	0.000000e+00	0.0	0.000000e+00	0.000000e+00	0.0	0.000000e+00	0.000000e+00	0.0	0.000000e+00	0.000000e+00	0.0	0.000000e+00	0.000000e+00	0.0	0.000000e+00	0.000000e+00	0.0	0.000000e+00	0.000000e+00	0.0	0.000000e+00	0.000000e+00	0.0	0.000000e+00	0.000000e+00	0.0	0.000000e+00	0.000000e+00	0.0	0.000000e+00	0.000000e+00	0.0	0.000000e+00	0.000000e+00	0.0	0.000000e+00	0.000000e+00	0.0	0.000000e+00	0.000000e+00	0.0	0.000000e+00	0.000000e+00	0.0	0.000000e+00	0.000000e+00	0.0	0.000000e+00	0.000000e+00	0.0	0.000000e+00	0.000000e+00	0.0	0.000000e+00	0.000000e+00	0.0	0.000000e+00	0.000000e+00	0.0	0.000000e+00	0.000000e+00	0.0	0.000000e+00	0.000000e+00	0.0	0.000000e+00	0.000000e+00	0.0	0.000000e+00	0.000000e+00	0.0	0.000000e+00	0.000000e+00	0.0	0.000000e+00	0.000000e+00	0.0	0.000000e+00	0.000000e+00	0.0	0.000000e+00	0.000000e+00	0.0	0.000000e+00	0.000000e+00	0.0	0.000000e+00	0.000000e+00	0.0	0.000000e+00	0.000000e+00	0.0	0.000000e+00	0.000000e+00	0.0	0.000000e+00	0.000000e+00	0.0	0.000000e+00	0.000000e+00	0.0	0.000000e+00	0.000000e+00	0.0	0.000000e+00	0.000000e+00	0.0	0.000000e+00	0.000000e+00	0.0	0.000000e+00	0.000000e+00	0.0	0.000000e+00	0.000000e+00	0.0	0.000000e+00	0.000000e+00	0.0	0.000000e+00	0.000000e+00	0.0	0.000000e+00	0.000000e+00	0.0	0.000000e+00	0.000000e+00	0.0	0.000000e+00	0.000000e+00	0.0	0.000000e+00	0.000000e+00	0.0	0.000000e+00	0.000000e+00	0.0	0.000000e+00	0.000000e+00	0.0	0.000000e+00	0.000000e+00	0.0	0.000000e+00	0.000000e+00	0.0	0.000000e+00	0.000000e+00	0.0	0.000000e+00	0.000000e+00	0.0	0.000000e+00	0.000000e+00	0.0	0.000000e+00	0.000000e+00	0.0	0.000000e+00	0.000000e+00	0.0	0.000000e+00	0.000000e+00	0.0	0.000000e+00	0.000000e+00	0.0	0.000000e+00	0.000000e+00	0.0	0.000000e+00	0.000000e+00	0.0	0.000000e+00	0.000000e+00	0.0	0.000000e+00	0.000000e+00	0.0	0.000000e+00	0.000000e+00	0.0	0.000000e+00	0.000000e+00	0.0	0.000000e+00	0.000000e+00	0.0	0.000000e+00	0.000000e+00	0.0	0.000000e+00	0.000000e+00	0.0	0.000000e+00	0.000000e+00	0.0	0.000000e+00	0.000000e+00	0.0	0.000000e+00	0.000000e+00	0.0	0.000000e+00	0.000000e+00	0.0	0.000000e+00	0.000000e+00	0.0	0.000000e+00	0.000000e+00	0.0	0.000000e+00	0.000000e+00	0.0	0.000000e+00	0.000000e+00	0.0	0.000000e+00	0.000000e+00	0.0	0.000000e+00	0.000000e+00	0.0	0.000000e+00	0.000000e+00	0.0	0.000000e+00	0.000000e+00	0.0	0.000000e+00	0.000000e+00	0.0	0.000000e+00	0.000000e+00	0.0	0.000000e+00	0.000000e+00	0.0	0.000000e+00	0.000000e+00	0.0	0.000000e+00	0.000000e+00	0.0	0.000000e+00	0.000000e+00	0.0	0.000000e+00	0.000000e+00	0.0	0.000000e+00	0.000000e+00	0.0	0.000000e+00	0.000000e+00	0.0	0.000000e+00	0.000000e+00	0.0	0.000000e+00	0.000000e+00	0.0	0.000000e+00	0.000000e+00	0.0	0.000000e+00	0.000000e+00	0.0	0.000000e+00	0.000000e+00	0.0	0.000000e+00	0.000000e+00	0.0	0.000000e+00	0.000000e+00	0.0	0.000000e+00	0.000000e+00	0.0	0.000000e+00	0.000000e+00	0.0	0.000000e+00	0.000000e+00	0.0	0.000000e+00	0.000000e+00	0.0	0.000000e+00	0.000000e+00	0.0	0.000000e+00	0.000000e+00	0.0	0.000000e+00	0.000000e+00	0.0	0.000000e+00	0.000000e+00	0.0	0.000000e+00	0.000000e+00	0.0	0.000000e+00	0.000000e+00	0.0	0.000000e+00	0.000000e+00	0.0	0.000000e+00	0.000000e+00	0.0	0.000000e+00	0.000000e+00	0.0	0.000000e+00	0.000000e+00	0.0	0.000000e+00	0.000000e+00	0.0	0.000000e+00	0.000000e+00	0.0	0.000000e+00	0.000000e+00	0.0	0.000000e+00	0.000000e+00	0.0	0.000000e+00	0.000000e+00	0.0	0.000000e+00	0.000000e+00	0.0	0.000000e+00	0.000000e+00	0.0	0.000000e+00	0.000000e+00	0.0	0.000000e+00	0.000000e+00	0.0	0.000000e+00	0.000000e+00	0.0	0.000000e+00	0.000000e+00	0.0	0.000000e+00	0.000000e+00	0.0	0.000000e+00	0.000000e+00	0.0	0.000000e+00	0.000000e+00	0.0	0.000000e+00	0.000000e+00	0.0	0.000000e+00	0.000000e+00	0.0	0.000000e+00	0.000000e+00	0.0	0.000000e+00	0.000000e+00	0.0	0.000000e+00	0.000000e+00	0.0	0.000000e+00	0.000000e+00	0.0	0.000000e+00	0.000000e+00	0.0	0.000000e+00	0.000000e+00	0.0	0.000000e+00	0.000000e+00	0.0	0.000000e+00	0.000000e+00	0.0	0.000000e+00	0.000000e+00	0.0	0.000000e+00	0.000000e+00	0.0	0.000000e+00	0.000000e+00	0.0	0.000000e+00	0.000000e+00	0.0	0.000000e+00	0.000000e+00	0.0	0.000000e+00	0.000000e+00	0.0	0.000000e+00	0.000000e+00	0.0	0.000000e+00	0.000000e+00	0.0	0.000000e+00	0.000000e+00	0.0	0.000000e+00	0.000000e+00	0.0	0.000000e+00	0.000000e+00	0.0	0.000000e+00	0.000000e+00	0.0	0.000000e+00	0.000000e+00	0.0	0.000000e+00	0.000000e+00	0.0	0.000000e+00	0.000000e+00	0.0	0.000000e+00	0.000000e+00	0.0	0.000000e+00	0.000000e+00	0.0	0.000000e+00	0.000000e+00	0.0	0.000000e+00	0.000000e+00	0.0	0.000000e+00	0.000000e+00	0.0	0.000000e+00	0.000000e+00	0.0	0.000000e+00	0.000000e+00	0.0	0.000000e+00	0.000000e+00	0.0	0.000000e+00	0.000000e+00	0.0	0.000000e+00	0.000000e+00	0.0	0.000000e+00	0.000000e+00	0.0	0.000000e+00	0.000000e+00	0.0	0.000000e+00	0.000000e+00	0.0	0.000000e+00	0.000000e+00	0.0	0.000000e+00	0.000000e+00	0.0	0.000000e+00	0.000000e+00	0.0	0.000000e+00	0.000000e+00	0.0	0.000000e+00	0.000000e+00	0.0	0.000000e+00	0.000000e+00	0.0	0.000000e+00	0.000000e+00	0.0	0.000000e+00	0.000000e+00	0.0	0.000000e+00	0.000000e+00	0.0	0.000000e+00	0.000000e+00	0.0	0.000000e+00	0.000000e+00	0.0	0.000000e+00	0.000000e+00	0.0	0.000000e+00	0.000000e+00	0.0	0.000000e+00	0.000000e+00	0.0	0.000000e+00	0.000000e+00	0.0	0.000000e+00	0.000000e+00	0.0	0.000000e+00	0.000000e+00	0.0	0.000000e+00	0.000000e+00	0.0	0.000000e+00	0.000000e+00	0.0	0.000000e+00	0.000000